# vtk DataFile Version 3.0
vtk output
ASCII
DATASET POLYDATA
POINTS 470 float
20.6952 37.8211 -26.5263 20.6911 37.2401 -26.4133 22.228 38.0368 -27.1916 
22.0028 37.1225 -25.564 23.9845 38.9501 -27.7858 24.1903 37.1071 -25.564 
18.0719 38.0759 -26.158 17.6263 36.917 -25.9321 25.5117 38.3682 -26.6394 
25.4987 36.5169 -25.4511 26.8056 35.71 -23.6394 16.9471 33.6622 -25.9195 
20.6714 34.4436 -26.6978 25.4985 36.4673 -18.4011 27.2492 36.5634 -19.2505 
23.7468 36.2433 -18.7693 29.8702 36.0135 -26.1876 29.8505 33.2169 -26.472 
26.3597 34.5315 -25.4804 22.4184 33.9978 -23.3004 24.1756 35.0195 -24.7439 
27.0093 33.5914 -25.9197 19.8061 35.7984 -19.5055 21.9935 35.783 -19.5056 
28.5518 35.1559 -19.3927 19.7866 33.0215 -17.7231 18.2601 33.7118 -19.7188 
24.1591 32.646 -17.2421 24.5973 32.7513 -18.0914 28.9811 33.9908 -19.1668 
16.9324 31.5746 -25.0994 19.7736 31.2001 -25.6517 21.0966 32.6676 -17.242 
27.2321 34.1311 -17.9492 31.6055 33.9135 -25.3675 27.6534 31.8536 -24.5473 
32.0218 30.8972 -23.9533 29.8286 30.0953 -24.2084 11.4957 36.1129 -17.0703 
11.4825 34.242 -17.9489 9.52854 36.3532 -17.7355 10.6058 34.0118 -18.3171 
13.6658 33.6456 -17.836 15.854 33.7385 -18.6854 17.5811 30.4767 -17.6393 
20.2207 32.5458 -18.4595 25.9016 31.5801 -17.8655 30.2837 32.5833 -19.3091 
31.144 30.4895 -18.489 13.2086 30.8521 -18.1204 13.227 33.4815 -23.1872 
15.4095 32.7572 -24.2918 26.7708 30.7566 -18.1207 13.6407 30.1009 -23.3587 
15.8289 30.1939 -24.2081 24.155 32.065 -17.1291 12.5597 31.9005 -18.5304 
15.8313 30.5086 -15.5724 28.9681 32.1395 -17.9785 21.0892 31.614 -17.8654 
15.3768 28.1093 -23.388 17.1267 28.097 -23.3881 18.8873 29.5913 -24.0952 
29.8221 29.1697 -23.6143 32.0088 29.0459 -22.765 15.1618 28.6325 -17.4845 
18.0138 29.7842 -16.677 20.1945 28.8236 -18.1498 29.3835 28.9952 -17.7818 
31.5668 28.3988 -17.6689 28.0727 29.2408 -17.4136 13.191 28.361 -23.0198 
28.0671 28.473 -24.7188 13.6339 29.1061 -17.7815 23.2586 29.0383 -17.7817 
25.447 29.1509 -16.5642 21.507 28.8143 -18.1498 32.2271 28.9654 -18.8153 
30.2334 25.4444 -23.3046 15.1449 26.2498 -23.2332 17.1145 26.3541 -23.0491 
29.3647 26.3266 -16.8488 32.4303 26.7581 -18.1793 31.1123 25.9696 -16.3676 
31.9941 26.9583 -21.9449 29.1353 24.8117 -17.1751 33.071 24.5477 -17.5434 
30.8852 24.7994 -17.1751 30.2211 23.7014 -22.9657 27.1617 24.1265 -17.2462 
27.1477 22.1472 -17.2754 31.2999 21.5468 -16.1291 29.332 21.6788 -15.9449 
33.0547 22.2238 -17.0914 27.5681 19.7118 -15.9742 31.0697 19.9235 -15.606 
29.3181 19.6995 -15.9742 32.8211 20.1279 -17.3048 27.5469 16.6986 -14.5599 
30.8265 16.449 -13.8947 32.3666 17.6987 -16.0035 29.7295 15.9938 -13.5976 
25.3652 17.5313 -14.3047 31.4704 14.6916 -14.5893 27.5323 14.611 -13.7398 
29.7214 14.8319 -13.3717 26.4336 13.9195 -13.8109 27.9493 11.703 -13.175 
30.5807 12.6102 -13.7691 30.1433 12.6132 -13.7691 25.7619 11.7184 -13.1749 
29.4916 13.2478 -8.71491 30.5869 13.4667 -9.38018 28.8174 10.702 -7.59773 
30.3469 10.4451 -8.99938 25.5412 11.4243 -7.52654 24.8724 9.65654 -10.2879 
28.8057 9.04784 -10.175 27.9307 9.054 -10.175 27.5066 10.9476 -7.22951 
26.1795 8.8692 -6.40939 28.1564 10.0271 -5.60195 30.3452 10.2088 -9.36757 
29.9045 9.75887 -8.03705 28.0448 25.2823 -17.4721 27.7416 13.2602 -8.71487 
24.3649 30.8329 -24.1372 26.3424 32.0796 -26.246 21.0836 30.8462 -25.1706 
21.073 29.3396 -24.4634 24.3484 28.4894 -25.7522 24.5679 28.606 -25.5681 
19.7459 27.2612 -23.6433 17.1083 25.4676 -18.3212 21.4873 26.0178 -18.4343 
22.8014 26.2449 -18.0661 23.2462 27.3058 -28.6265 24.5549 26.7547 -24.3798 
25.859 25.534 -17.1039 22.1494 26.8702 -26.2625 20.17 25.3377 -17.472 
15.7999 26.0578 -18.4342 23.6577 23.5701 -17.1331 25.1897 23.6775 -16.949 
18.1979 24.8691 -19.2417 19.7251 24.2872 -18.0953 24.518 21.4763 -16.313 
24.7359 21.3567 -16.4971 25.8141 19.1432 -15.8611 23.1882 19.0337 -17.0786 
22.7372 17.0967 -12.9741 23.8152 14.8637 -14.405 23.3667 13.291 -8.71477 
25.7754 13.6285 -8.16255 23.5772 12.1476 -18.6391 23.5709 11.2116 -6.86124 
16.1287 10.5746 -5.89876 17.0037 10.5685 -5.89878 20.5036 10.5438 -5.89885 
21.3786 10.5377 -5.89887 15.2441 9.20211 -3.97409 16.994 9.18979 -3.97413 
19.6207 9.40763 -3.606 20.938 10.0877 -4.56835 22.6896 10.3117 -4.20021 
24.4373 10.0043 -10.7691 14.8233 11.5683 -0.292231 13.4975 9.68706 -3.23768 
25.502 5.85076 -6.02858 27.4756 6.53604 -5.95751 22.2201 5.77531 -4.14572 
28.3554 7.21922 -6.91985 23.9692 5.63503 -5.36329 13.0734 11.5806 -0.292193 
11.7393 8.53742 -3.01169 9.99031 8.67769 -1.79412 10.8776 10.4145 -2.13307 
13.4728 6.18157 -4.62669 16.0977 6.16309 -4.62675 18.7226 6.14462 -4.62681 
20.4726 6.1323 -4.62685 9.97787 6.91515 -3.52206 12.5995 6.42405 -4.25849 
15.225 37.6331 -25.8609 15.4422 37.405 -25.1957 14.577 38.8095 -25.0534 
13.2467 36.2781 -22.9028 12.3643 35.2306 -23.5262 9.08603 35.6474 -18.84 
11.0541 35.5649 -26.0742 9.08102 34.9384 -19.9446 11.0363 33.0243 -23.9236 
12.3521 33.4877 -23.1872 11.6811 31.3949 -23.4006 12.316 28.3672 -23.0198 
14.4903 26.4809 -23.8984 28.2711 26.3741 -24.9322 15.5627 23.4501 -23.5176 
17.0948 23.5575 -23.3336 19.2893 24.5565 -26.844 28.0433 25.0955 -24.8903 
22.1345 24.763 -27.5093 23.2161 23.0222 -26.137 26.2884 24.3989 -25.9948 
21.9077 23.5824 -17.1331 16.6682 25.1064 -19.9069 15.5562 22.5245 -22.9235 
18.3998 22.4947 -23.957 17.9523 21.0499 -17.0492 19.2761 22.6557 -18.6057 
21.901 22.6372 -18.6058 15.9826 20.926 -19.3002 15.0946 19.0809 -18.1119 
17.94 19.307 -16.7103 19.6803 17.916 -14.7857 21.8767 19.1709 -15.8611 
14.4368 18.859 -17.4466 13.9896 17.4834 -15.522 16.6138 17.3566 -14.6727 
17.4904 17.5867 -14.3045 19.6779 17.5713 -14.3045 21.4262 17.3227 -14.6728 
12.225 15.4081 -14.7018 11.3394 13.9076 -13.9947 13.5285 14.1286 -13.6265 
22.5044 15.1092 -14.0368 10.6857 14.2667 -13.4424 15.9374 14.4857 -11.0074 
17.4613 13.4311 -10.5974 20.5317 14.5519 -12.8903 22.2664 12.3932 -18.2709 
17.0206 12.9811 -9.26691 19.6456 12.9627 -9.26697 21.833 12.9473 -9.26702 
16.1293 10.6933 -17.9318 18.7648 12.1815 -18.639 20.5189 12.7502 -18.752 
10.4604 44.4416 -23.451 11.5549 44.5521 -23.2669 13.9536 43.4717 -24.9238 
11.3188 42.0919 -25.066 14.6023 42.4037 -26.5806 15.4663 40.8517 -30.0073 
12.3989 40.1643 -31.1118 12.3864 38.3718 -23.7229 14.1505 40.3883 -30.7436 
15.8988 40.1397 -31.1118 12.3874 38.5297 -31.6222 16.3279 38.955 -32.9528 
14.5746 38.4947 -33.6891 18.5171 39.176 -32.5846 20.0433 38.466 -32.6558 
16.7506 36.8448 -34.1996 18.0606 36.4908 -33.7184 9.35039 42.1352 -21.9656 
13.9005 35.9489 -32.5719 19.8163 37.2958 -33.4633 9.1349 42.5995 -22.2627 
8.90473 40.9763 -21.7396 12.593 36.6671 -31.4674 10.6382 38.6205 -23.3546 
14.1095 34.5589 -31.6807 19.3591 34.5024 -33.7477 20.8789 32.8668 -33.2247 
16.2878 33.2536 -32.6724 18.045 34.2753 -34.1159 7.58334 39.7152 -20.6643 
7.56421 37.0074 -23.865 16.7106 31.1629 -31.8523 21.5245 31.3457 -33.5511 
18.0303 32.1877 -33.2958 19.337 31.3611 -33.551 8.85364 33.729 -24.8858 
8.88522 38.1994 -19.9572 10.1953 37.8454 -19.4761 21.7277 29.1384 -32.9151 
17.5668 28.4882 -30.9192 19.7558 28.6895 -32.618 16.6976 29.3116 -30.664 
18.654 27.545 -31.3585 21.4853 25.7722 -32.0531 20.1762 26.2541 -31.3167 
20.147 22.0985 -27.6096 21.4539 21.2916 -25.798 17.4986 18.7786 -23.6473 
19.2452 18.2937 -24.3837 15.9675 18.7992 -22.6138 20.7814 18.982 -24.3126 
21.1587 41.5206 -28.9029 23.7853 41.7384 -28.5347 19.4021 40.5877 -30.3756 
18.5254 40.3575 -30.7437 18.523 40.0129 -30.2626 18.9629 40.3544 -30.7437 
21.5862 40.0997 -31.112 21.5787 39.046 -31.7354 23.7703 39.6116 -31.8484 
21.1281 37.1782 -32.614 24.1864 36.5757 -32.501 22.8516 33.4241 -34.3712 
24.6122 34.9184 -35.0783 22.8297 30.3025 -32.1076 27.5813 21.6127 -24.2124 
23.6422 21.4041 -24.5805 24.953 21.1586 -24.9487 29.7615 20.5633 -22.769 
27.5618 18.8358 -22.43 24.7156 18.5013 -22.9822 22.7509 19.0863 -24.1286 
29.3118 18.8234 -22.43 17.9157 15.8707 -23.0824 19.2322 16.4424 -23.1954 
16.6008 15.5352 -22.6012 20.988 17.2474 -22.9403 14.4316 18.1305 -20.618 
14.2062 17.1965 -21.0573 28.8505 15.449 -22.6015 22.7256 15.4921 -22.6014 
24.9131 15.4767 -22.6014 26.663 15.4644 -22.6015 25.1078 43.1471 -26.3256 
27.2936 42.8954 -26.6939 24.2312 42.9169 -26.6938 27.727 42.3113 -26.5809 
28.8115 41.0039 -28.6059 25.9778 42.432 -27.4302 23.3378 40.3236 -30.7438 
25.5252 40.3082 -30.7439 27.711 40.0565 -31.1121 28.1399 38.8223 -25.9031 
27.0417 38.2001 -30.9573 25.9536 39.0152 -31.7355 33.6089 38.8432 -31.9197 
31.6401 38.8473 -32.9531 30.5364 37.4469 -34.1288 33.3753 36.7473 -32.1331 
28.552 35.2354 -35.5596 25.0662 37.2589 -33.4634 26.8063 35.8483 -33.6057 
33.1299 32.9777 -36.9906 26.798 34.6667 -35.4466 28.5494 34.8711 -37.1453 
30.2945 34.1694 -36.183 29.0188 39.3776 -28.0829 26.771 30.8362 -34.2876 
33.1119 30.4174 -36.9068 30.2689 30.536 -38.7896 28.521 30.8238 -34.2876 
33.3837 37.9289 -30.2921 33.3755 36.7669 -30.0662 29.0071 37.7234 -30.6602 
25.4545 30.2644 -34.1745 31.1866 36.5656 -28.3674 34.2423 35.5988 -29.8402 
32.4808 33.9765 -30.3506 35.5442 34.0829 -29.1332 34.6765 35.1231 -30.5766 
34.4478 33.7166 -31.7523 28.5015 28.0469 -32.5052 32.8801 28.5579 -36.752 
30.4675 27.659 -35.1244 34.8721 31.8426 -32.6309 22.8132 27.959 -33.7226 
26.5449 29.7939 -33.8775 25.4504 29.6834 -34.0616 36.1931 33.0345 -28.7231 
33.1175 31.1852 -29.6017 35.5312 32.2316 -27.9449 34.849 28.5734 -33.6517 
36.3939 30.4825 -27.606 25.86 25.7218 -34.1201 27.1702 25.3875 -31.5721 
29.7952 25.3691 -31.5721 30.6724 25.688 -34.1202 33.3021 26.3588 -35.0826 
33.5338 28.1688 -28.1874 35.9516 29.7963 -26.6436 23.6759 26.2099 -33.3837 
34.622 27.4032 -34.4592 36.8191 28.7365 -27.267 36.3789 28.3557 -30.9196 
32.8581 25.4063 -25.3716 37.2444 26.9905 -26.9281 35.4838 25.4962 -26.221 
33.2802 23.2372 -32.819 23.4416 24.0056 -32.7477 25.8494 24.2152 -33.413 
28.0433 25.1255 -34.0072 28.4808 25.1224 -34.0072 30.6642 24.526 -33.8942 
35.0335 23.6975 -32.0827 21.6902 23.8012 -31.0489 33.0736 24.9419 -25.0745 
36.7872 24.197 -27.2126 31.5271 22.7665 -22.3716 35.0305 23.2641 -28.6853 
[...]
POINT_DATA 470
SCALARS Label float
LOOKUP_TABLE default
8 8 10 1 10 11 8 1 11 
11 1 8 8 1 1 1 11 11 
11 1 8 11 1 1 1 1 1 
1 1 1 8 8 1 1 11 11 
11 11 8 1 8 8 1 1 1 
1 1 1 1 1 8 8 1 8 
8 1 1 1 1 1 8 8 8 
11 11 4 4 1 1 1 1 9 
10 13 3 3 3 1 11 9 8 
2 1 1 11 3 1 1 11 3 
3 1 3 1 1 1 1 1 1 
1 1 3 3 1 1 1 1 1 
1 1 8 1 1 1 1 3 1 
1 1 2 5 5 1 5 3 2 
8 10 8 8 10 10 8 3 3 
13 10 10 3 10 4 13 3 3 
8 8 3 3 3 8 8 8 3 
3 13 5 5 5 5 5 5 5 
5 5 5 8 5 5 5 5 5 
5 5 5 5 5 5 5 5 5 
5 5 5 9 8 9 8 9 8 
9 8 13 8 13 13 9 10 9 
8 9 10 9 10 10 8 13 9 
9 8 8 8 8 8 8 8 8 
8 8 8 8 8 8 8 8 8 
8 8 8 8 8 13 8 8 8 
13 13 13 9 9 9 9 9 9 
9 9 9 9 9 9 9 9 11 
9 9 9 9 11 9 9 9 9 
9 11 11 9 9 9 9 9 11 
9 9 9 9 9 11 9 13 9 
9 13 9 9 9 9 9 9 9 
10 11 10 10 10 10 13 11 11 
11 11 11 11 11 11 10 11 11 
11 11 11 11 10 11 10 11 10 
10 11 11 11 11 11 11 11 11 
11 11 11 11 11 11 11 11 11 
11 11 11 11 11 11 11 11 11 
11 11 11 11 11 11 11 11 11 
11 11 11 11 11 11 11 11 11 
11 13 11 11 11 11 11 11 13 
11 11 11 11 11 11 11 11 13 
13 11 13 11 11 11 11 11 11 
11 11 11 13 11 11 13 11 11 
11 11 11 11 13 11 11 11 11 
13 11 11 11 11 11 13 11 11 
11 11 11 11 11 11 11 11 11 
13 11 11 13 11 11 11 11 11 
11 11 11 13 13 13 13 11 11 
13 13 13 13 13 13 13 13 13 
13 13 13 13 13 13 13 13 13 
13 13 13 13 13 13 13 13 13 
13 13 
